34
Au_2.58_4.log	Energy: -2219370.1524013
P         -2.62848        0.48239        0.00006
C         -3.45120       -0.65318       -1.15939
C         -3.19417        0.08881        1.68368
C         -3.24329        2.15104       -0.39116
Au        -0.30646        0.21066       -0.13960
Br        -0.63926       -2.24392        0.47669
C         -0.03732        2.19101       -0.64173
C          0.08075        3.17900        0.24316
N          1.82935       -0.09930       -0.27360
C          2.68714        0.71993        0.36616
C          4.07050        0.52514        0.35523
C          4.99443        1.45119        1.09869
C          4.55370       -0.57065       -0.37848
C          3.66402       -1.41117       -1.04471
C          2.29799       -1.15405       -0.96683
H         -4.54194       -0.53853       -1.06012
H         -3.14797       -1.68208       -0.92298
H         -3.14879       -0.41111       -2.18876
H         -4.29054        0.18246        1.72829
H         -2.73671        0.78699        2.39989
H         -2.88458       -0.93718        1.92626
H         -4.34246        2.14553       -0.32242
H         -2.93820        2.43232       -1.40865
H         -2.82672        2.88232        0.31367
H          0.05899        2.36103       -1.72208
H         -0.01923        3.03359        1.32476
H          0.29534        4.20244       -0.08948
H          2.24925        1.56648        0.89653
H          4.45057        2.28188        1.57019
H          5.75015        1.87733        0.41990
H          5.53644        0.90698        1.88899
H          5.62913       -0.76295       -0.42368
H          4.01526       -2.27035       -1.61860
H          1.56268       -1.80496       -1.44089
