40
Au_2.19_4.log	Energy: -2448601.2381698
P         -2.69553        0.83746        0.55419
C         -4.06847       -0.13481       -0.14666
C         -2.68853        0.54852        2.35375
C         -3.12132        2.59399        0.30911
Au        -0.57794        0.15446       -0.37779
Br        -1.09391       -2.21847        0.42945
C         -0.14533        2.10000       -0.91949
C          0.69694        2.88020       -0.24315
P          1.59889       -0.47429       -1.20625
C          1.77991       -2.25171       -1.56896
C          2.08403        0.39344       -2.73351
C          2.77337       -0.05323        0.11154
C          2.59493       -0.66759        1.36673
C          3.45839       -0.36063        2.41876
C          4.49354        0.56334        2.23089
C          4.66531        1.18178        0.98909
C          3.80753        0.87904       -0.07279
H         -5.01408        0.15266        0.33882
H         -3.86313       -1.20158        0.01943
H         -4.13947        0.05332       -1.22803
H         -3.66872        0.81209        2.78052
H         -1.90641        1.16489        2.82090
H         -2.46765       -0.51310        2.53383
H         -4.08723        2.81029        0.79152
H         -3.19559        2.81457       -0.76553
H         -2.33659        3.22811        0.74423
H         -0.68701        2.46194       -1.80268
H          1.25487        2.53788        0.63484
H          0.87049        3.91668       -0.55848
H          1.05579       -2.54141       -2.34416
H          1.56936       -2.83445       -0.66350
H          2.80756       -2.43910       -1.91576
H          1.38362        0.11009       -3.53285
H          3.10303        0.09683       -3.02419
H          2.03328        1.47881       -2.58088
H          1.77874       -1.37971        1.52269
H          3.32264       -0.84322        3.38926
H          5.16794        0.80232        3.05646
H          5.47268        1.90277        0.84225
H          3.95730        1.37201       -1.03505
