31
Au_2.55_4.log	Energy: -2256980.9096965
P          2.66536        0.02770        0.17623
C          3.08238       -1.24290        1.40928
C          3.29060       -0.51274       -1.44374
C          3.60121        1.52006        0.63517
Au         0.34239        0.29197        0.06766
Br         0.16607       -2.18678       -0.50626
C          0.48622        2.29503        0.53064
C          0.68239        3.25699       -0.36900
N         -1.82182        0.47577       -0.03710
C         -2.58208       -0.44943        0.57635
C         -3.97146       -0.39317        0.49350
F         -4.68415       -1.31504        1.11905
C         -4.59717        0.61223       -0.24081
C         -3.78537        1.55389       -0.87314
C         -2.40071        1.46335       -0.74632
H          4.17606       -1.36992        1.43357
H          2.59018       -2.18446        1.13081
H          2.72771       -0.92532        2.40068
H          4.37832       -0.67144       -1.37473
H          3.08010        0.26023       -2.19723
H          2.78187       -1.44505       -1.72541
H          4.67099        1.26070        0.67456
H          3.27363        1.88268        1.61944
H          3.43486        2.31333       -0.10496
H          0.32896        2.51328        1.59510
H          0.85238        3.06008       -1.43364
H          0.67391        4.31210       -0.06754
H         -2.09244       -1.26080        1.11631
H         -5.68694        0.64040       -0.30645
H         -4.21967        2.36162       -1.46450
H         -1.73777        2.19408       -1.20901
