63
Au_2.15_4.log	Energy: -2763371.5030080
P         -3.64526        0.61004        0.06264
C         -4.36652       -0.54317       -1.15352
C         -4.33443        0.17669        1.69444
C         -4.32345        2.25144       -0.35635
Au        -1.23916        0.36932        0.05238
Br        -1.63054       -2.09062        0.68883
C         -0.97087        2.32360       -0.54987
C         -1.21532        3.40015        0.19272
P          1.16738       -0.07327       -0.08124
C          1.35122       -1.55475       -1.14739
C          0.73497       -1.64498       -2.42175
C         -0.16388       -0.57828       -3.00195
C          0.91749       -2.82715       -3.15461
C          1.65070       -3.90264       -2.65092
C          2.22016       -3.81855       -1.37994
C          2.06638       -2.65135       -0.63343
C          2.10064        1.32426       -0.80738
C          2.29219        2.52201       -0.07217
C          1.85184        2.71230        1.35903
C          3.00022        3.56233       -0.69574
C          3.51733        3.43775       -1.98579
C          3.34314        2.24492       -2.69123
C          2.63941        1.19651       -2.10111
C          1.91659       -0.42695        1.55337
C          3.32586       -0.47621        1.73236
C          4.33806       -0.28604        0.62622
C          3.80449       -0.70315        3.03372
C          2.94864       -0.87204        4.12273
C          1.56670       -0.82824        3.93254
C          1.05924       -0.60790        2.65365
H         -5.46550       -0.49191       -1.10948
H         -4.02119       -1.56006       -0.92114
H         -4.02798       -0.26685       -2.16314
H         -5.43419        0.21904        1.66006
H         -3.96388        0.88720        2.44808
H         -3.99876       -0.83615        1.95684
H         -5.42289        2.19126       -0.37594
H         -3.94964        2.56871       -1.33943
H         -4.00887        2.99409        0.38882
H         -0.55430        2.40891       -1.56088
H         -1.60746        3.34765        1.21357
H         -1.00357        4.40385       -0.19557
H         -1.19356       -0.71104       -2.62545
H         -0.21004       -0.65682       -4.09727
H          0.15260        0.44555       -2.76182
H          0.45913       -2.90815       -4.14368
H          1.76664       -4.80950       -3.24895
H          2.78089       -4.65826       -0.96404
H          2.49857       -2.60365        0.36599
H          0.91528        2.19471        1.59687
H          1.71006        3.77944        1.58118
H          2.61582        2.32199        2.05165
H          3.15544        4.49312       -0.14377
H          4.06459        4.26958       -2.43546
H          3.75805        2.12515       -3.69434
H          2.53607        0.25792       -2.64681
H          4.02957       -0.74103       -0.32382
H          5.30221       -0.72974        0.91200
H          4.51156        0.78351        0.42630
H          4.88512       -0.75011        3.19090
H          3.36412       -1.04451        5.11841
H          0.88311       -0.97038        4.77212
H         -0.02124       -0.59304        2.51453
