37
Au_2.64_4.log	Energy: -2244058.2786625
P         -2.62683        0.31971        0.02589
C         -3.33444       -0.55274       -1.40517
C         -3.18549       -0.52146        1.53943
C         -3.36875        1.98318        0.04378
Au        -0.28722        0.27741       -0.04360
Br        -0.39537       -2.27590       -0.10370
C         -0.16872        2.33980       -0.06013
C          0.62134        3.04613        0.74551
N          1.86196        0.14238       -0.01767
C          2.49030       -0.09979        1.16093
C          1.66541       -0.29194        2.40184
C          3.88353       -0.20210        1.19531
C          4.61682       -0.06713        0.01856
C          3.94282        0.16295       -1.17846
C          2.54919        0.26442       -1.18077
C          1.78275        0.49388       -2.45099
H         -4.43269       -0.55291       -1.32476
H         -2.94928       -1.58167       -1.41646
H         -3.03357       -0.04275       -2.33201
H         -4.28611       -0.53766        1.56531
H         -2.80370        0.01642        2.41946
H         -2.78668       -1.54546        1.53623
H         -4.45997        1.88260        0.15180
H         -3.14976        2.50781       -0.89689
H         -2.96567        2.56734        0.88269
H         -0.78829        2.83350       -0.81753
H          1.26442        2.59749        1.50842
H          0.66026        4.13945        0.66314
H          0.97984        0.55369        2.57378
H          2.30663       -0.39312        3.28657
H          1.05585       -1.20538        2.30501
H          4.37985       -0.39472        2.14730
H          5.70627       -0.14638        0.03360
H          4.48589        0.26366       -2.11896
H          2.45918        0.55789       -3.31270
H          1.20848        1.43289       -2.39473
H          1.07741       -0.33473       -2.62942
