34
Au_2.57_4.log	Energy: -2219371.6145925
P         -2.56868        0.32367       -0.00222
C         -3.18996       -0.47914       -1.51149
C         -3.23198       -0.57301        1.43486
C         -3.28715        1.99613        0.04360
Au        -0.23108        0.25783       -0.00829
Br        -0.35047       -2.28653        0.00355
C         -0.10043        2.31922       -0.05132
C          0.54880        2.97739       -1.00915
N          1.91037        0.11877       -0.10859
C          2.69862        0.32261        0.97280
C          2.04886        0.66427        2.28097
C          4.08801        0.19893        0.84295
C          4.65197       -0.13298       -0.38731
C          3.81314       -0.34810       -1.48379
C          2.44338       -0.21657       -1.30085
H         -4.29099       -0.48229       -1.49679
H         -2.80333       -1.50734       -1.54373
H         -2.83431        0.07293       -2.39365
H         -4.33245       -0.55343        1.39872
H         -2.88555       -0.09187        2.36117
H         -2.86355       -1.60760        1.40424
H         -4.38360        1.91143       -0.01331
H         -2.91549        2.58863       -0.80369
H         -3.01394        2.50037        0.98129
H         -0.58507        2.84560        0.77951
H          1.04416        2.48054       -1.84981
H          0.61560        4.07233       -0.98598
H          1.34085       -0.12776        2.57596
H          1.49002        1.61035        2.19741
H          2.79463        0.77312        3.07846
H          4.71769        0.36250        1.71880
H          5.73544       -0.22938       -0.48866
H          4.20561       -0.62140       -2.46425
H          1.74388       -0.39590       -2.11971
