60
Au_2.4_4.log	Energy: -2550335.4557869
P          3.19820       -0.41710       -0.28568
C          3.82395        0.70046       -1.58625
C          4.03021       -0.00246        1.28080
C          3.84183       -2.05893       -0.76779
Au         0.77928       -0.23857       -0.04996
Br         1.35783        2.25524        0.34083
C          0.88085       -2.29726        0.11922
C          1.02820       -2.89757        1.29908
P         -1.75263       -0.06150       -0.05874
C         -2.32475       -0.44019        1.74883
C         -1.30934        0.22539        2.70416
C         -3.74683        0.07218        2.05769
C         -2.30568       -1.95654        2.02945
C         -2.32453        1.73362       -0.57853
C         -1.50213        2.20018       -1.80059
C         -3.82184        1.79059       -0.95178
C         -2.09896        2.73734        0.57245
C         -2.54798       -1.32895       -1.29982
C         -1.85627       -2.70371       -1.22206
C         -4.05424       -1.53349       -1.02785
C         -2.34570       -0.84064       -2.74916
H          4.91629        0.58383       -1.66299
H          3.56479        1.73748       -1.33983
H          3.36096        0.42973       -2.54676
H          5.12144       -0.06618        1.14806
H          3.71410       -0.71613        2.05598
H          3.74076        1.01407        1.57905
H          4.93016       -1.97776       -0.91537
H          3.37545       -2.38603       -1.70829
H          3.62744       -2.79790        0.01387
H          0.92656       -2.86211       -0.81511
H          1.02012       -2.36525        2.25567
H          1.14946       -3.98678        1.35388
H         -1.19185        1.30238        2.54330
H         -0.31265       -0.23457        2.62015
H         -1.65178        0.07574        3.74063
H         -3.83426        1.16303        2.01910
H         -3.99936       -0.23224        3.08641
H         -4.50734       -0.36372        1.39813
H         -1.34092       -2.42012        1.79908
H         -3.09434       -2.49832        1.49329
H         -2.49251       -2.10159        3.10573
H         -1.68764        1.60393       -2.69911
H         -0.42537        2.22101       -1.60093
H         -1.80449        3.23396       -2.03352
H         -4.06458        1.22570       -1.85869
H         -4.06569        2.84469       -1.16033
H         -4.48395        1.46222       -0.14192
H         -1.07008        2.74298        0.94218
H         -2.78468        2.58173        1.41283
H         -2.30365        3.74512        0.17717
H         -1.74343       -3.09991       -0.20964
H         -0.86989       -2.67512       -1.69790
H         -2.46571       -3.42172       -1.79395
H         -4.23849       -2.06188       -0.08433
H         -4.46061       -2.16664       -1.83340
H         -4.63312       -0.60554       -1.02555
H         -1.29117       -0.60744       -2.96348
H         -2.95913        0.02893       -3.00908
H         -2.64256       -1.65696       -3.42713
