44
Au_2.48_4.log	Energy: -2351321.4939580
P         -2.57647        1.04827        0.23693
C         -2.61755        2.05194       -1.28518
C         -3.99378       -0.09586        0.16285
C         -2.89255        2.18985        1.62291
Au        -0.51084       -0.14868        0.33253
Br        -1.10544       -1.30547       -1.87880
C          0.05935        0.75849        2.09251
C         -0.21435        0.29452        3.30962
C          1.31434       -1.16072        0.32878
N          1.50278       -2.44793        0.59189
C          0.47285       -3.44457        0.82045
C          2.89285       -2.85195        0.30944
C          3.60618       -1.49927        0.12499
N          2.46659       -0.56361        0.01142
C          2.61338        0.81562       -0.33293
C          1.93086        1.32511       -1.44659
C          2.04293        2.68337       -1.75813
C          2.84896        3.52067       -0.97997
C          3.54558        2.99922        0.11614
C          3.42711        1.64679        0.44653
H         -3.57677        2.58611       -1.36450
H         -2.48159        1.38030       -2.14491
H         -1.79070        2.77728       -1.26315
H         -4.92906        0.46933        0.02935
H         -4.04674       -0.67655        1.09557
H         -3.83987       -0.78291       -0.68153
H         -3.86518        2.68618        1.48348
H         -2.09522        2.94552        1.66528
H         -2.88920        1.63186        2.56943
H          0.65907        1.66288        1.92999
H         -0.79482       -0.61667        3.48754
H          0.14287        0.82554        4.20073
H         -0.43913       -2.95996        1.19039
H          0.82172       -4.16649        1.57330
H          0.23137       -3.97601       -0.11463
H          2.91400       -3.47164       -0.60359
H          3.29902       -3.44612        1.14089
H          4.22884       -1.45357       -0.77901
H          4.22923       -1.23023        0.99299
H          1.32503        0.65632       -2.06226
H          1.51316        3.08214       -2.62649
H          2.94398        4.57900       -1.23312
H          4.17962        3.64980        0.72274
H          3.95232        1.24215        1.31433
