57
Au_2.27_4.log	Energy: -2714009.8471590
P          3.28678        0.16115        0.99099
C          4.16217       -1.43740        0.96205
C          4.09709        1.24410       -0.23277
C          3.60529        0.90142        2.62694
Au         0.96940       -0.12050        0.39832
Br         1.75493       -1.10760       -1.84313
C          0.38739        0.51561        2.27066
C          0.15998       -0.31697        3.28306
P         -1.33535       -0.33062       -0.31182
C         -1.78175       -2.07698       -0.54768
C         -0.98092       -3.09881       -0.01207
C         -1.33962       -4.43654       -0.18967
C         -2.49489       -4.76342       -0.90568
C         -3.29668       -3.75051       -1.44249
C         -2.94548       -2.41112       -1.26524
C         -2.53178        0.41706        0.83898
C         -2.38983        1.77536        1.18399
C         -3.28608        2.36792        2.07359
C         -4.31810        1.61193        2.64072
C         -4.45052        0.25914        2.31644
C         -3.56191       -0.34132        1.41973
C         -1.53343        0.50082       -1.96503
C         -1.20098        1.97201       -1.94692
C          0.13536        2.40527       -2.00593
C          0.44279        3.76645       -1.92926
C         -0.57915        4.71396       -1.80228
C         -1.91175        4.29263       -1.76641
C         -2.21966        2.93079       -1.83703
H          5.23297       -1.28340        1.16700
H          4.02586       -1.89099       -0.02978
H          3.73497       -2.10328        1.72622
H          5.16791        1.34376        0.00318
H          3.62233        2.23623       -0.21296
H          3.96504        0.80151       -1.23015
H          4.69083        1.00225        2.78129
H          3.17238        0.26543        3.41093
H          3.13256        1.89241        2.68390
H          0.25777        1.60000        2.36370
H          0.26642       -1.40378        3.20397
H         -0.17019        0.07016        4.25478
H         -0.06707       -2.85653        0.53442
H         -0.70965       -5.22589        0.22613
H         -2.77066       -5.81079       -1.04882
H         -4.19931       -4.00334       -2.00328
H         -3.58858       -1.63328       -1.68319
H         -1.58205        2.37446        0.76164
H         -3.17495        3.42449        2.32817
H         -5.01601        2.07759        3.34053
H         -5.24993       -0.33680        2.76269
H         -3.67548       -1.39979        1.18053
H         -2.57524        0.32941       -2.27402
H         -0.87002       -0.06705       -2.63434
H          0.93254        1.67106       -2.14107
H          1.48485        4.09106       -1.98923
H         -0.33848        5.77835       -1.74933
H         -2.71699        5.02672       -1.68622
H         -3.26362        2.60929       -1.79807
