59
Au_2.45_4.log	Energy: -2474740.8528187
P         -3.26094        0.47311        0.08745
C         -3.91562        1.44412       -1.30950
C         -4.04135       -1.17312        0.00725
C         -3.88462        1.27016        1.60575
Au        -0.88150        0.22523       -0.03885
Br        -1.18863       -0.80342       -2.36594
C         -0.65198        1.12984        1.80123
C         -0.25563        0.53796        2.92587
C          1.17779       -0.07923       -0.17113
N          1.79564       -1.28018       -0.13682
C          1.12591       -2.58529       -0.06229
C          0.54852       -2.89977        1.31615
C         -0.09304       -4.28829        1.37375
C         -0.73200       -4.58667        2.73006
C          3.17701       -1.09530       -0.24993
C          3.38141        0.28994       -0.36836
C          4.65983        0.83453       -0.52866
C          5.72683       -0.06189       -0.55412
C          5.52428       -1.45203       -0.42600
C          4.24893       -1.99418       -0.27430
N          2.11715        0.87927       -0.31140
C          1.87884        2.32232       -0.37338
C          2.26887        3.05239        0.91520
C          1.91532        4.54558        0.87568
C          0.41385        4.84077        0.94128
H         -5.01467        1.48187       -1.25804
H         -3.59349        0.96908       -2.24683
H         -3.51165        2.46637       -1.26768
H         -5.13742       -1.07474        0.03397
H         -3.70560       -1.78059        0.86071
H         -3.72454       -1.65792       -0.92728
H         -4.98509        1.29188        1.58910
H         -3.50338        2.29945        1.67056
H         -3.53524        0.71311        2.48619
H         -0.89582        2.19922        1.77984
H          0.01160       -0.52048        2.98628
H         -0.17881        1.11443        3.85601
H          1.86714       -3.34234       -0.35078
H          0.33935       -2.59775       -0.83057
H         -0.21393       -2.14162        1.56718
H          1.34133       -2.81173        2.07931
H          0.66970       -5.05300        1.14329
H         -0.85249       -4.36883        0.57523
H          0.01271       -4.54146        3.54162
H         -1.18530       -5.58922        2.74872
H         -1.52489       -3.85696        2.96714
H          4.81856        1.90867       -0.62970
H          6.74249        0.31988       -0.67636
H          6.38742       -2.12043       -0.44909
H          4.10248       -3.07080       -0.18031
H          0.81540        2.46387       -0.60569
H          2.44490        2.71641       -1.23223
H          3.35099        2.92982        1.08229
H          1.76547        2.56387        1.76550
H          2.34644        5.00105       -0.03392
H          2.41505        5.04222        1.72315
H         -0.14097        4.39138        0.10027
H          0.22168        5.92391        0.90894
H         -0.02301        4.45685        1.87859
