61
Au_2.36_4.log	Energy: -2475496.3834500
P         -1.61906       -2.86956        0.18034
C         -3.33411       -2.47019       -0.29449
C         -0.96517       -3.99929       -1.09292
C         -1.72567       -3.83876        1.72362
Au        -0.32975       -0.85454        0.31929
Br        -0.80998       -0.47273       -2.17313
C          0.05275       -1.15769        2.32252
C         -0.24959       -0.29298        3.29005
C          0.74347        0.92723        0.39655
N          0.21517        2.16677        0.33876
C         -1.21488        2.49004        0.16284
C         -1.46333        3.19559       -1.17611
C         -2.96166        3.46642       -1.36091
C         -3.54163        4.26126       -0.18416
C         -3.26476        3.56310        1.15376
C         -1.76614        3.29273        1.34770
C          1.22743        3.10637        0.42912
C          2.39765        2.41915        0.54559
N          2.08238        1.06993        0.52300
C          3.02159       -0.08332        0.60333
C          3.16620       -0.77506       -0.76614
C          4.08201       -0.00774       -1.72421
C          5.47307        0.18497       -1.11000
C          5.38391        0.94483        0.21858
C          4.39157        0.28995        1.19662
H         -3.91811       -3.39538       -0.41572
H         -3.30840       -1.90937       -1.23974
H         -3.79434       -1.84473        0.48451
H         -1.61274       -4.88542       -1.17963
H          0.05235       -4.31393       -0.81796
H         -0.92737       -3.45963       -2.04979
H         -2.38704       -4.70592        1.57391
H         -2.12107       -3.20633        2.53118
H         -0.72645       -4.19555        2.01282
H          0.52692       -2.11932        2.55358
H         -0.71276        0.67938        3.09837
H         -0.04000       -0.53562        4.33903
H         -1.73049        1.51862        0.13140
H         -1.07076        2.56916       -1.99113
H         -0.90881        4.15074       -1.19043
H         -3.48968        2.49979       -1.45218
H         -3.12662        3.99996       -2.30997
H         -4.62500        4.40866       -0.31806
H         -3.08915        5.26938       -0.16696
H         -3.81080        2.60231        1.18547
H         -3.64480        4.16470        1.99435
H         -1.58147        2.74892        2.28900
H         -1.22592        4.25273        1.42285
H          1.03809        4.17486        0.40141
H          3.41174        2.78559        0.64315
H          2.53181       -0.77415        1.30507
H          2.17423       -0.93396       -1.21732
H          3.59350       -1.77518       -0.57631
H          3.63366        0.97590       -1.95543
H          4.14775       -0.54763       -2.68171
H          6.13646        0.72013       -1.80742
H          5.93262       -0.80531       -0.93807
H          5.10155        1.98946        0.00651
H          6.37203        0.99815        0.70249
H          4.25585        0.90211        2.10326
H          4.82958       -0.66225        1.53941
