22
Au_2.71_4.log	Energy: -2109931.5945326
P         -1.92576       -0.37552       -0.02866
C         -2.16440       -1.56985       -1.37712
C         -2.19399       -1.21956        1.55773
C         -3.19933        0.90943       -0.19742
Au         0.29401        0.41187       -0.08858
Br         1.14472       -1.98194        0.15701
C         -0.37860        2.37523       -0.26832
C         -0.41808        3.22324        0.75434
C          2.30856        1.01115       -0.12970
O          3.39615        1.28791       -0.14619
H         -3.18592       -1.97691       -1.31172
H         -1.42332       -2.37501       -1.27546
H         -2.03000       -1.06824       -2.34663
H         -3.21292       -1.63792        1.56985
H         -2.08090       -0.50282        2.38418
H         -1.44959       -2.02134        1.66221
H         -4.18729        0.42349       -0.15993
H         -3.08591        1.43320       -1.15694
H         -3.10908        1.63810        0.61913
H         -0.65671        2.65355       -1.29241
H         -0.13774        2.95532        1.77860
H         -0.74050        4.26028        0.59412
