49
Au_2.40_4.log	Energy: -2329686.2666311
P         -2.91610       -0.00898       -0.31127
C         -3.58637       -1.51645        0.46574
C         -3.53251        1.40581        0.66000
C         -3.68325        0.11140       -1.96191
Au        -0.51898       -0.01545       -0.28930
Br        -0.57778       -0.28449        2.25635
C         -0.40907        0.20809       -2.33682
C         -0.20404        1.36726       -2.95936
C          1.56745        0.00159       -0.22499
N          2.32877       -1.08199       -0.35827
C          1.84319       -2.46987       -0.47108
C          2.60070       -3.22358       -1.56480
C          1.88398       -3.17962        0.88525
C          3.74315       -0.76423       -0.08131
C          3.73636        0.77530       -0.01954
N          2.29588        1.09131       -0.00822
C          1.78782        2.45035        0.24654
C          1.92708        2.81084        1.72745
C          2.45267        3.46372       -0.68638
H         -4.68491       -1.46100        0.51135
H         -3.16674       -1.60167        1.47820
H         -3.28802       -2.39733       -0.12167
H         -4.63222        1.38728        0.70514
H         -3.20020        2.34455        0.19277
H         -3.10900        1.33785        1.67245
H         -4.77972        0.12752       -1.86555
H         -3.38313       -0.75188       -2.57342
H         -3.33808        1.02668       -2.46261
H         -0.52851       -0.72959       -2.89459
H         -0.07323        2.31683       -2.43059
H         -0.16068        1.41136       -4.05458
H          0.79082       -2.38013       -0.78477
H          3.65214       -3.39639       -1.28564
H          2.57619       -2.67445       -2.51862
H          2.14062       -4.21031       -1.72151
H          2.91881       -3.30585        1.24145
H          1.44352       -4.18406        0.79520
H          1.31491       -2.61420        1.63834
H          4.39536       -1.15240       -0.87517
H          4.04780       -1.22302        0.87290
H          4.21246        1.23214       -0.90133
H          4.23012        1.16846        0.88026
H          0.71404        2.40892        0.00404
H          2.98495        2.85725        2.03161
H          1.40738        2.07068        2.35351
H          1.48637        3.80145        1.91590
H          3.52326        3.58411       -0.45699
H          1.98029        4.44918       -0.56164
H          2.35300        3.16162       -1.74035
